<?xml version="1.0"?>
<VTKFile type="UnstructuredGrid" version="1.0" byte_order="LittleEndian">
	<FieldData>
		<DataArray type="Int32" Name="PartID" NumberOfTuples="1" format="ascii">0</DataArray>
		<DataArray type="Int32" Name="NumOwnedNodes" NumberOfTuples="1" format="ascii">64</DataArray>
	</FieldData>
	<UnstructuredGrid>
		<Piece NumberOfPoints="64" NumberOfCells="162">
			<Points>
				<DataArray type="Float64" NumberOfComponents="3" format="ascii">0.00000000000000000e+00 0.00000000000000000e+00 0.00000000000000000e+00
3.33333333333333315e-01 0.00000000000000000e+00 0.00000000000000000e+00
6.66666666666666630e-01 0.00000000000000000e+00 0.00000000000000000e+00
1.00000000000000000e+00 0.00000000000000000e+00 0.00000000000000000e+00
0.00000000000000000e+00 3.33333333333333315e-01 0.00000000000000000e+00
3.33333333333333315e-01 3.33333333333333315e-01 0.00000000000000000e+00
6.66666666666666630e-01 3.33333333333333315e-01 0.00000000000000000e+00
1.00000000000000000e+00 3.33333333333333315e-01 0.00000000000000000e+00
0.00000000000000000e+00 6.66666666666666630e-01 0.00000000000000000e+00
3.33333333333333315e-01 6.66666666666666630e-01 0.00000000000000000e+00
6.66666666666666630e-01 6.66666666666666630e-01 0.00000000000000000e+00
1.00000000000000000e+00 6.66666666666666630e-01 0.00000000000000000e+00
0.00000000000000000e+00 1.00000000000000000e+00 0.00000000000000000e+00
3.33333333333333315e-01 1.00000000000000000e+00 0.00000000000000000e+00
6.66666666666666630e-01 1.00000000000000000e+00 0.00000000000000000e+00
1.00000000000000000e+00 1.00000000000000000e+00 0.00000000000000000e+00
0.00000000000000000e+00 0.00000000000000000e+00 3.33333333333333315e-01
3.33333333333333315e-01 0.00000000000000000e+00 3.33333333333333315e-01
6.66666666666666630e-01 0.00000000000000000e+00 3.33333333333333315e-01
1.00000000000000000e+00 0.00000000000000000e+00 3.33333333333333315e-01
0.00000000000000000e+00 3.33333333333333315e-01 3.33333333333333315e-01
3.33333333333333315e-01 3.33333333333333315e-01 3.33333333333333315e-01
6.66666666666666630e-01 3.33333333333333315e-01 3.33333333333333315e-01
1.00000000000000000e+00 3.33333333333333315e-01 3.33333333333333315e-01
0.00000000000000000e+00 6.66666666666666630e-01 3.33333333333333315e-01
3.33333333333333315e-01 6.66666666666666630e-01 3.33333333333333315e-01
6.66666666666666630e-01 6.66666666666666630e-01 3.33333333333333315e-01
1.00000000000000000e+00 6.66666666666666630e-01 3.33333333333333315e-01
0.00000000000000000e+00 1.00000000000000000e+00 3.33333333333333315e-01
3.33333333333333315e-01 1.00000000000000000e+00 3.33333333333333315e-01
6.66666666666666630e-01 1.00000000000000000e+00 3.33333333333333315e-01
1.00000000000000000e+00 1.00000000000000000e+00 3.33333333333333315e-01
0.00000000000000000e+00 0.00000000000000000e+00 6.66666666666666630e-01
3.33333333333333315e-01 0.00000000000000000e+00 6.66666666666666630e-01
6.66666666666666630e-01 0.00000000000000000e+00 6.66666666666666630e-01
1.00000000000000000e+00 0.00000000000000000e+00 6.66666666666666630e-01
0.00000000000000000e+00 3.33333333333333315e-01 6.66666666666666630e-01
3.33333333333333315e-01 3.33333333333333315e-01 6.66666666666666630e-01
6.66666666666666630e-01 3.33333333333333315e-01 6.66666666666666630e-01
1.00000000000000000e+00 3.33333333333333315e-01 6.66666666666666630e-01
0.00000000000000000e+00 6.66666666666666630e-01 6.66666666666666630e-01
3.33333333333333315e-01 6.66666666666666630e-01 6.66666666666666630e-01
6.66666666666666630e-01 6.66666666666666630e-01 6.66666666666666630e-01
1.00000000000000000e+00 6.66666666666666630e-01 6.66666666666666630e-01
0.00000000000000000e+00 1.00000000000000000e+00 6.66666666666666630e-01
3.33333333333333315e-01 1.00000000000000000e+00 6.66666666666666630e-01
6.66666666666666630e-01 1.00000000000000000e+00 6.66666666666666630e-01
1.00000000000000000e+00 1.00000000000000000e+00 6.66666666666666630e-01
0.00000000000000000e+00 0.00000000000000000e+00 1.00000000000000000e+00
3.33333333333333315e-01 0.00000000000000000e+00 1.00000000000000000e+00
6.66666666666666630e-01 0.00000000000000000e+00 1.00000000000000000e+00
1.00000000000000000e+00 0.00000000000000000e+00 1.00000000000000000e+00
0.00000000000000000e+00 3.33333333333333315e-01 1.00000000000000000e+00
3.33333333333333315e-01 3.33333333333333315e-01 1.00000000000000000e+00
6.66666666666666630e-01 3.33333333333333315e-01 1.00000000000000000e+00
1.00000000000000000e+00 3.33333333333333315e-01 1.00000000000000000e+00
0.00000000000000000e+00 6.66666666666666630e-01 1.00000000000000000e+00
3.33333333333333315e-01 6.66666666666666630e-01 1.00000000000000000e+00
6.66666666666666630e-01 6.66666666666666630e-01 1.00000000000000000e+00
1.00000000000000000e+00 6.66666666666666630e-01 1.00000000000000000e+00
0.00000000000000000e+00 1.00000000000000000e+00 1.00000000000000000e+00
3.33333333333333315e-01 1.00000000000000000e+00 1.00000000000000000e+00
6.66666666666666630e-01 1.00000000000000000e+00 1.00000000000000000e+00
1.00000000000000000e+00 1.00000000000000000e+00 1.00000000000000000e+00
</DataArray>
			</Points>
			<Cells>
				<DataArray type="Int32" Name="connectivity" format="ascii">0 1 5 21 0 5 4 21 0 4 20 21 0 20 16 21 0 16 17 21 0 17 1 21 1 2 6 22 1 6 5 22 1 5 21 22 1 21 17 22 1 17 18 22 1 18 2 22 2 3 7 23 2 7 6 23 2 6 22 23 2 22 18 23 2 18 19 23 2 19 3 23 4 5 9 25 4 9 8 25 4 8 24 25 4 24 20 25 4 20 21 25 4 21 5 25 5 6 10 26 5 10 9 26 5 9 25 26 5 25 21 26 5 21 22 26 5 22 6 26 6 7 11 27 6 11 10 27 6 10 26 27 6 26 22 27 6 22 23 27 6 23 7 27 8 9 13 29 8 13 12 29 8 12 28 29 8 28 24 29 8 24 25 29 8 25 9 29 9 10 14 30 9 14 13 30 9 13 29 30 9 29 25 30 9 25 26 30 9 26 10 30 10 11 15 31 10 15 14 31 10 14 30 31 10 30 26 31 10 26 27 31 10 27 11 31 16 17 21 37 16 21 20 37 16 20 36 37 16 36 32 37 16 32 33 37 16 33 17 37 17 18 22 38 17 22 21 38 17 21 37 38 17 37 33 38 17 33 34 38 17 34 18 38 18 19 23 39 18 23 22 39 18 22 38 39 18 38 34 39 18 34 35 39 18 35 19 39 20 21 25 41 20 25 24 41 20 24 40 41 20 40 36 41 20 36 37 41 20 37 21 41 21 22 26 42 21 26 25 42 21 25 41 42 21 41 37 42 21 37 38 42 21 38 22 42 22 23 27 43 22 27 26 43 22 26 42 43 22 42 38 43 22 38 39 43 22 39 23 43 24 25 29 45 24 29 28 45 24 28 44 45 24 44 40 45 24 40 41 45 24 41 25 45 25 26 30 46 25 30 29 46 25 29 45 46 25 45 41 46 25 41 42 46 25 42 26 46 26 27 31 47 26 31 30 47 26 30 46 47 26 46 42 47 26 42 43 47 26 43 27 47 32 33 37 53 32 37 36 53 32 36 52 53 32 52 48 53 32 48 49 53 32 49 33 53 33 34 38 54 33 38 37 54 33 37 53 54 33 53 49 54 33 49 50 54 33 50 34 54 34 35 39 55 34 39 38 55 34 38 54 55 34 54 50 55 34 50 51 55 34 51 35 55 36 37 41 57 36 41 40 57 36 40 56 57 36 56 52 57 36 52 53 57 36 53 37 57 37 38 42 58 37 42 41 58 37 41 57 58 37 57 53 58 37 53 54 58 37 54 38 58 38 39 43 59 38 43 42 59 38 42 58 59 38 58 54 59 38 54 55 59 38 55 39 59 40 41 45 61 40 45 44 61 40 44 60 61 40 60 56 61 40 56 57 61 40 57 41 61 41 42 46 62 41 46 45 62 41 45 61 62 41 61 57 62 41 57 58 62 41 58 42 62 42 43 47 63 42 47 46 63 42 46 62 63 42 62 58 63 42 58 59 63 42 59 43 63 </DataArray>
				<DataArray type="Int32" Name="offsets" format="ascii">4 8 12 16 20 24 28 32 36 40 44 48 52 56 60 64 68 72 76 80 84 88 92 96 100 104 108 112 116 120 124 128 132 136 140 144 148 152 156 160 164 168 172 176 180 184 188 192 196 200 204 208 212 216 220 224 228 232 236 240 244 248 252 256 260 264 268 272 276 280 284 288 292 296 300 304 308 312 316 320 324 328 332 336 340 344 348 352 356 360 364 368 372 376 380 384 388 392 396 400 404 408 412 416 420 424 428 432 436 440 444 448 452 456 460 464 468 472 476 480 484 488 492 496 500 504 508 512 516 520 524 528 532 536 540 544 548 552 556 560 564 568 572 576 580 584 588 592 596 600 604 608 612 616 620 624 628 632 636 640 644 648 </DataArray>
				<DataArray type="UInt8" Name="types" format="ascii">10 10 10 10 10 10 10 10 10 10 10 10 10 10 10 10 10 10 10 10 10 10 10 10 10 10 10 10 10 10 10 10 10 10 10 10 10 10 10 10 10 10 10 10 10 10 10 10 10 10 10 10 10 10 10 10 10 10 10 10 10 10 10 10 10 10 10 10 10 10 10 10 10 10 10 10 10 10 10 10 10 10 10 10 10 10 10 10 10 10 10 10 10 10 10 10 10 10 10 10 10 10 10 10 10 10 10 10 10 10 10 10 10 10 10 10 10 10 10 10 10 10 10 10 10 10 10 10 10 10 10 10 10 10 10 10 10 10 10 10 10 10 10 10 10 10 10 10 10 10 10 10 10 10 10 10 10 10 10 10 10 10 </DataArray>
			</Cells>
			<PointData>
				<DataArray type="Int32" Name="GlobalNodeID" format="ascii">0 1 2 3 4 5 6 7 8 9 10 11 12 13 14 15 16 17 18 19 20 21 22 23 24 25 26 27 28 29 30 31 32 33 34 35 36 37 38 39 40 41 42 43 44 45 46 47 48 49 50 51 52 53 54 55 56 57 58 59 60 61 62 63 </DataArray>
			</PointData>
			<CellData>
				<DataArray type="Int32" Name="GlobalCellID" format="ascii" NumberOfTuples="162">0 1 2 3 4 5 6 7 8 9 10 11 12 13 14 15 16 17 18 19 20 21 22 23 24 25 26 27 28 29 30 31 32 33 34 35 36 37 38 39 40 41 42 43 44 45 46 47 48 49 50 51 52 53 54 55 56 57 58 59 60 61 62 63 64 65 66 67 68 69 70 71 72 73 74 75 76 77 78 79 80 81 82 83 84 85 86 87 88 89 90 91 92 93 94 95 96 97 98 99 100 101 102 103 104 105 106 107 108 109 110 111 112 113 114 115 116 117 118 119 120 121 122 123 124 125 126 127 128 129 130 131 132 133 134 135 136 137 138 139 140 141 142 143 144 145 146 147 148 149 150 151 152 153 154 155 156 157 158 159 160 161 </DataArray>
			</CellData>
		</Piece>
	</UnstructuredGrid>
</VTKFile>
