<?xml version="1.0"?>
<VTKFile type="UnstructuredGrid" version="1.0" byte_order="LittleEndian">
	<FieldData>
		<DataArray type="Int32" Name="PartID" NumberOfTuples="1" format="ascii">-1</DataArray>
		<DataArray type="Int32" Name="NumOwnedNodes" NumberOfTuples="1" format="ascii">81</DataArray>
	</FieldData>
	<UnstructuredGrid>
		<Piece NumberOfPoints="81" NumberOfCells="24">
			<Points>
				<DataArray type="Float64" NumberOfComponents="3" format="ascii">0.00000000000000000e+00 0.00000000000000000e+00 0.00000000000000000e+00
1.00000000000000000e+01 0.00000000000000000e+00 0.00000000000000000e+00
1.00000000000000000e+01 1.00000000000000000e+00 0.00000000000000000e+00
0.00000000000000000e+00 1.00000000000000000e+00 0.00000000000000000e+00
0.00000000000000000e+00 0.00000000000000000e+00 1.00000000000000000e+00
1.00000000000000000e+01 0.00000000000000000e+00 1.00000000000000000e+00
1.00000000000000000e+01 1.00000000000000000e+00 1.00000000000000000e+00
0.00000000000000000e+00 1.00000000000000000e+00 1.00000000000000000e+00
5.00000000000000000e+00 0.00000000000000000e+00 0.00000000000000000e+00
5.00000000000000000e+00 1.00000000000000000e+00 0.00000000000000000e+00
5.00000000000000000e+00 0.00000000000000000e+00 1.00000000000000000e+00
5.00000000000000000e+00 1.00000000000000000e+00 1.00000000000000000e+00
2.50000000000000000e+00 1.00000000000000000e+00 0.00000000000000000e+00
2.50000000000000000e+00 0.00000000000000000e+00 1.00000000000000000e+00
2.50000000000000000e+00 1.00000000000000000e+00 1.00000000000000000e+00
2.50000000000000000e+00 0.00000000000000000e+00 0.00000000000000000e+00
7.50000000000000000e+00 0.00000000000000000e+00 0.00000000000000000e+00
7.50000000000000000e+00 1.00000000000000000e+00 1.00000000000000000e+00
7.50000000000000000e+00 1.00000000000000000e+00 0.00000000000000000e+00
7.50000000000000000e+00 0.00000000000000000e+00 1.00000000000000000e+00
1.25000000000000000e+00 0.00000000000000000e+00 5.00000000000000000e-01
0.00000000000000000e+00 0.00000000000000000e+00 5.00000000000000000e-01
1.25000000000000000e+00 5.00000000000000000e-01 1.00000000000000000e+00
2.50000000000000000e+00 5.00000000000000000e-01 1.00000000000000000e+00
1.25000000000000000e+00 5.00000000000000000e-01 5.00000000000000000e-01
1.25000000000000000e+00 0.00000000000000000e+00 1.00000000000000000e+00
6.25000000000000000e+00 1.00000000000000000e+00 1.00000000000000000e+00
6.25000000000000000e+00 5.00000000000000000e-01 5.00000000000000000e-01
5.00000000000000000e+00 5.00000000000000000e-01 0.00000000000000000e+00
5.00000000000000000e+00 1.00000000000000000e+00 5.00000000000000000e-01
6.25000000000000000e+00 1.00000000000000000e+00 5.00000000000000000e-01
5.00000000000000000e+00 5.00000000000000000e-01 5.00000000000000000e-01
5.00000000000000000e+00 5.00000000000000000e-01 1.00000000000000000e+00
5.00000000000000000e+00 0.00000000000000000e+00 5.00000000000000000e-01
6.25000000000000000e+00 5.00000000000000000e-01 1.00000000000000000e+00
7.50000000000000000e+00 5.00000000000000000e-01 5.00000000000000000e-01
8.75000000000000000e+00 0.00000000000000000e+00 0.00000000000000000e+00
8.75000000000000000e+00 0.00000000000000000e+00 5.00000000000000000e-01
7.50000000000000000e+00 5.00000000000000000e-01 1.00000000000000000e+00
7.50000000000000000e+00 0.00000000000000000e+00 5.00000000000000000e-01
8.75000000000000000e+00 5.00000000000000000e-01 5.00000000000000000e-01
8.75000000000000000e+00 1.00000000000000000e+00 5.00000000000000000e-01
1.00000000000000000e+01 5.00000000000000000e-01 0.00000000000000000e+00
8.75000000000000000e+00 5.00000000000000000e-01 0.00000000000000000e+00
7.50000000000000000e+00 1.00000000000000000e+00 5.00000000000000000e-01
8.75000000000000000e+00 1.00000000000000000e+00 0.00000000000000000e+00
3.75000000000000000e+00 0.00000000000000000e+00 5.00000000000000000e-01
3.75000000000000000e+00 0.00000000000000000e+00 1.00000000000000000e+00
3.75000000000000000e+00 5.00000000000000000e-01 1.00000000000000000e+00
3.75000000000000000e+00 5.00000000000000000e-01 5.00000000000000000e-01
8.75000000000000000e+00 5.00000000000000000e-01 1.00000000000000000e+00
1.00000000000000000e+01 5.00000000000000000e-01 1.00000000000000000e+00
1.00000000000000000e+01 5.00000000000000000e-01 5.00000000000000000e-01
8.75000000000000000e+00 1.00000000000000000e+00 1.00000000000000000e+00
1.00000000000000000e+01 0.00000000000000000e+00 5.00000000000000000e-01
0.00000000000000000e+00 5.00000000000000000e-01 5.00000000000000000e-01
0.00000000000000000e+00 5.00000000000000000e-01 1.00000000000000000e+00
1.25000000000000000e+00 1.00000000000000000e+00 1.00000000000000000e+00
0.00000000000000000e+00 5.00000000000000000e-01 0.00000000000000000e+00
1.25000000000000000e+00 1.00000000000000000e+00 5.00000000000000000e-01
0.00000000000000000e+00 1.00000000000000000e+00 5.00000000000000000e-01
3.75000000000000000e+00 1.00000000000000000e+00 1.00000000000000000e+00
1.00000000000000000e+01 1.00000000000000000e+00 5.00000000000000000e-01
3.75000000000000000e+00 5.00000000000000000e-01 0.00000000000000000e+00
3.75000000000000000e+00 1.00000000000000000e+00 5.00000000000000000e-01
2.50000000000000000e+00 1.00000000000000000e+00 5.00000000000000000e-01
3.75000000000000000e+00 1.00000000000000000e+00 0.00000000000000000e+00
1.25000000000000000e+00 5.00000000000000000e-01 0.00000000000000000e+00
2.50000000000000000e+00 5.00000000000000000e-01 5.00000000000000000e-01
1.25000000000000000e+00 1.00000000000000000e+00 0.00000000000000000e+00
2.50000000000000000e+00 0.00000000000000000e+00 5.00000000000000000e-01
1.25000000000000000e+00 0.00000000000000000e+00 0.00000000000000000e+00
2.50000000000000000e+00 5.00000000000000000e-01 0.00000000000000000e+00
3.75000000000000000e+00 0.00000000000000000e+00 0.00000000000000000e+00
6.25000000000000000e+00 0.00000000000000000e+00 0.00000000000000000e+00
6.25000000000000000e+00 5.00000000000000000e-01 0.00000000000000000e+00
7.50000000000000000e+00 5.00000000000000000e-01 0.00000000000000000e+00
6.25000000000000000e+00 0.00000000000000000e+00 5.00000000000000000e-01
6.25000000000000000e+00 0.00000000000000000e+00 1.00000000000000000e+00
8.75000000000000000e+00 0.00000000000000000e+00 1.00000000000000000e+00
6.25000000000000000e+00 1.00000000000000000e+00 0.00000000000000000e+00
</DataArray>
			</Points>
			<Cells>
				<DataArray type="Int32" Name="connectivity" format="ascii">4 14 13 0 22 23 25 21 24 20 8 9 11 17 28 29 31 27 30 26 11 10 8 17 32 33 31 26 34 27 1 19 17 16 37 38 40 36 39 35 1 18 17 2 43 44 40 42 45 41 10 14 8 13 48 49 33 47 23 46 5 6 1 17 51 52 54 50 53 40 4 14 0 7 22 24 21 56 57 55 3 14 7 0 59 57 60 58 24 55 10 14 11 8 48 61 32 33 49 31 6 2 1 17 62 42 52 53 41 40 9 14 12 8 64 65 66 28 49 63 12 0 13 14 67 20 68 65 24 23 8 12 13 14 63 68 46 49 65 23 3 14 0 12 59 24 58 69 65 67 9 14 8 11 64 49 28 29 61 31 0 12 13 15 67 68 20 71 72 70 12 8 13 15 63 46 68 72 73 70 8 18 17 16 75 44 27 74 76 35 1 18 16 17 43 76 36 40 44 35 8 19 17 10 77 38 27 33 78 34 1 19 5 17 37 79 54 40 38 50 8 18 9 17 75 80 28 27 44 30 8 19 16 17 77 39 74 27 38 35 </DataArray>
				<DataArray type="Int32" Name="offsets" format="ascii">10 20 30 40 50 60 70 80 90 100 110 120 130 140 150 160 170 180 190 200 210 220 230 240 </DataArray>
				<DataArray type="UInt8" Name="types" format="ascii">24 24 24 24 24 24 24 24 24 24 24 24 24 24 24 24 24 24 24 24 24 24 24 24 </DataArray>
			</Cells>
			<PointData>
				<DataArray type="Int32" Name="GlobalNodeID" format="ascii">0 1 2 3 4 5 6 7 8 9 10 11 12 13 14 15 16 17 18 19 20 21 22 23 24 25 26 27 28 29 30 31 32 33 34 35 36 37 38 39 40 41 42 43 44 45 46 47 48 49 50 51 52 53 54 55 56 57 58 59 60 61 62 63 64 65 66 67 68 69 70 71 72 73 74 75 76 77 78 79 80 </DataArray>
				<DataArray type="UInt8" Name="NodeIsOwned" format="ascii">1 1 1 1 1 1 1 1 1 1 1 1 1 1 1 1 1 1 1 1 1 1 1 1 1 1 1 1 1 1 1 1 1 1 1 1 1 1 1 1 1 1 1 1 1 1 1 1 1 1 1 1 1 1 1 1 1 1 1 1 1 1 1 1 1 1 1 1 1 1 1 1 1 1 1 1 1 1 1 1 1 </DataArray>
			</PointData>
			<CellData>
				<DataArray type="Int32" Name="GlobalCellID" format="ascii" NumberOfTuples="24">0 1 2 3 4 5 6 7 8 9 10 11 12 13 14 15 16 17 18 19 20 21 22 23 </DataArray>
				<DataArray type="Int32" Name="CellRegionTag" format="ascii" NumberOfTuples="24">0 0 0 0 0 0 0 0 0 0 0 0 0 0 0 0 0 0 0 0 0 0 0 0 </DataArray>
			</CellData>
		</Piece>
	</UnstructuredGrid>
</VTKFile>
